# vtk DataFile Version 4.0
Generated by libFractalCommon
ASCII
DATASET POLYDATA
POINTS 150 FLOAT
7.45998 -4.06247 3.29132 7.0786 -5.92524 2.67113 9.05398 -6.15227 2.88639 8.93118 -6.46828 0.915332 5.27789 -5.34665 2.021 8.52878 -2.52546 2.58758 5.1665 -5.72227 0.0597527 5.0468 -3.85745 -0.653068 10.7559 -5.93362 0.295157 2.55979 -7.29919 -1.45153 3.68475 -6.56682 -2.93413 3.45463 -4.84398 -1.94476 1.83911 -8.09728 -3.13785 0.0850644 -7.45638 -2.4219 3.31252 -4.9722 0.0460633 1.61353 -5.05797 1.09776 -0.473479 -8.8083 -1.05795 4.93784 -7.56228 -4.13364 -4.07208 -13.1969 -0.774102 -3.31273 -11.3962 -0.349091 -3.23356 -11.2174 -2.33951 -4.36718 -13.8156 -2.65297 -1.71108 -10.3463 -1.37868 -4.31966 -12.9028 -4.43186 -1.63105 -10.6557 0.595618 -0.221966 -12.0719 0.690873 -1.74187 -10.3556 4.48342 -1.72297 -9.65222 2.6113 -3.3179 -10.8397 2.39683 0.169793 -10.2437 3.90636 -1.07128 -8.7669 0.940516 -0.237241 -11.5715 5.34562 1.48309 -10.4521 5.4003 0.462866 -10.8471 7.07454 13.2927 -2.01852 2.9947 12.0428 -0.962059 4.14427 13.18 -0.416136 1.8032 10.3564 -0.604804 3.13003 10.3719 0.839561 1.74671 12.9396 -0.213506 5.76762 12.836 -3.94139 2.68815 8.63442 0.34313 2.76115 9.15296 2.79455 2.17934 8.19863 4.54542 2.02537 9.65649 5.18167 3.23774 9.0627 3.05629 0.198593 10.6994 6.25696 1.9126 10.7849 2.03945 0.200842 10.9952 6.771 0.00254556 12.4379 6.72415 2.78407 13.9901 -9.51413 6.22147 13.757 -7.54454 5.9638 14.1164 -9.01093 8.15301 13.8944 -9.08826 4.26968 13.332 -6.26285 7.43914 15.4601 -7.92388 9.15935 11.409 -5.94681 6.98923 12.3941 -4.4039 6.1836 10.6652 -0.958239 7.07837 9.31944 -2.34475 6.56199 11.4511 -2.45412 8.14826 9.2725 -4.15111 7.41923 12.2777 -4.2751 8.17605 10.3334 -0.641318 5.13171 8.73011 -4.49958 9.31248 8.71702 -1.39636 4.22761 -7.93035 -17.1951 -16.8755 -7.31952 -15.875 -15.5029 -7.5486 -15.6988 -18.1464 -9.41139 -14.9738 -18.0799 -8.86641 -18.0296 -15.3175 -7.12069 -19.0055 -15.314 -8.84409 -20.0278 -15.4006 -6.29287 -14.7579 -14.1997 -4.3558 -13.0387 -19.9524 -4.63016 -13.6526 -21.836 -6.12036 -13.9306 -19.6511 -4.37826 -11.6845 -22.0873 -4.07904 -11.8196 -18.3913 -7.8709 -12.9691 -19.7561 -8.04096 -14.9537 -19.936 -9.33505 -13.1205 -21.1101 -2.48654 -17.4454 -12.803 -2.51053 -15.4473 -12.7189 -2.4987 -15.5954 -14.7133 -4.46833 -17.6905 -12.9146 -1.97351 -15.4725 -10.7925 -5.71077 -16.6689 -14.1031 -1.06182 -16.5316 -15.7424 -5.58239 -17.4009 -15.9599 -0.492943 -15.762 -9.47944 -1.34021 -15.0412 -7.81734 -2.97748 -14.9665 -8.96353 -2.63201 -13.7779 -6.95982 -1.38527 -17.5477 -9.35575 -4.79382 -14.3183 -8.43356 -4.50406 -13.0857 -6.83269 -3.53325 -11.389 -7.25569 -10.2731 -21.6484 1.04989 -10.8444 -19.8139 1.60486 -9.7409 -21.811 2.97091 -11.7588 -19.6641 3.37723 -11.9763 -18.1839 1.85401 -8.76606 -21.0052 -0.0968466 -9.41529 -19.707 -1.47283 -11.5113 -20.944 4.89403 -14.7636 -21.8176 5.00603 -14.7517 -23.5232 3.96161 -14.2997 -23.022 6.53387 -12.7147 -21.8025 6.55178 -13.8562 -20.5083 7.56273 -11.7191 -20.0728 6.68227 -16.5884 -23.2625 4.70899 -15.2832 -20.0217 8.8769 -6.14029 -13.0443 -9.44705 -5.81298 -13.1768 -11.4156 -6.27415 -15.036 -9.57094 -7.10575 -14.3315 -7.89399 -7.23401 -16.4607 -10.595 -5.31969 -11.4751 -10.3767 -8.44425 -15.7413 -12.0155 -9.04665 -14.1795 -13.11 -8.57585 -15.3897 -7.0461 -10.8142 -17.054 -3.74393 -9.38907 -15.694 -3.39817 -9.27536 -18.165 -4.37453 -7.90067 -17.2217 -5.4792 -10.0653 -19.6997 -3.36423 -9.08799 -14.4983 -4.97284 -8.08154 -17.2807 -7.47013 -6.20039 -17.6583 -6.90557 -8.83063 -14.4935 -1.89917 -6.29629 -9.39555 -0.983153 -5.80684 -9.0068 0.916665 -7.08088 -11.0586 -0.196504 -5.0692 -10.4427 -2.16537 -6.15238 -12.4589 0.888304 -7.28788 -13.4591 -0.419481 -5.42565 -9.58223 2.79378 -6.89283 -8.22383 2.84007 -6.45784 -10.6228 -3.59339 -7.86942 -15.577 1.74235 -7.33577 -17.019 0.463328 -8.67484 -17.0991 2.75953 -6.4537 -15.0801 3.0648 -9.41135 -18.3594 1.39242 -5.80805 -16.5218 4.2915 -7.58977 -15.8759 -1.15807 -5.47465 -13.4302 2.49995 -6.70441 -17.8252 5.5153 

POINT_DATA 150
FIELD FieldData 4
v 1 150 double
0 0 0 0 0 0 0 0 0 0 0 0 0 0 0 0 0 0 0 0 0 0 0 0 0 0 0 0 0 0 0 0 0 0 0 0 0 0 0 0 0 0 0 0 0 0 0 0 0 0 0 0 0 0 0 0 0 0 0 0 0 0 0 0 0 0 0 0 0 0 0 0 0 0 0 0 0 0 0 0 0 0 0 0 0 0 0 0 0 0 0 0 0 0 0 0 0 0 0 0 0 0 0 0 0 0 0 0 0 0 0 0 0 0 0 0 0 0 0 0 0 0 0 0 0 0 0 0 0 0 0 0 0 0 0 0 0 0 0 0 0 0 0 0 0 0 0 0 0 0 
a 1 150 double
0 0 0 0 0 0 0 0 0 0 0 0 0 0 0 0 0 0 0 0 0 0 0 0 0 0 0 0 0 0 0 0 0 0 0 0 0 0 0 0 0 0 0 0 0 0 0 0 0 0 0 0 0 0 0 0 0 0 0 0 0 0 0 0 0 0 0 0 0 0 0 0 0 0 0 0 0 0 0 0 0 0 0 0 0 0 0 0 0 0 0 0 0 0 0 0 0 0 0 0 0 0 0 0 0 0 0 0 0 0 0 0 0 0 0 0 0 0 0 0 0 0 0 0 0 0 0 0 0 0 0 0 0 0 0 0 0 0 0 0 0 0 0 0 0 0 0 0 0 0 
omega 1 150 double
0 0 0 0 0 0 0 0 0 0 0 0 0 0 0 0 0 0 0 0 0 0 0 0 0 0 0 0 0 0 0 0 0 0 0 0 0 0 0 0 0 0 0 0 0 0 0 0 0 0 0 0 0 0 0 0 0 0 0 0 0 0 0 0 0 0 0 0 0 0 0 0 0 0 0 0 0 0 0 0 0 0 0 0 0 0 0 0 0 0 0 0 0 0 0 0 0 0 0 0 0 0 0 0 0 0 0 0 0 0 0 0 0 0 0 0 0 0 0 0 0 0 0 0 0 0 0 0 0 0 0 0 0 0 0 0 0 0 0 0 0 0 0 0 0 0 0 0 0 0 
alpha 1 150 double
0 0 0 0 0 0 0 0 0 0 0 0 0 0 0 0 0 0 0 0 0 0 0 0 0 0 0 0 0 0 0 0 0 0 0 0 0 0 0 0 0 0 0 0 0 0 0 0 0 0 0 0 0 0 0 0 0 0 0 0 0 0 0 0 0 0 0 0 0 0 0 0 0 0 0 0 0 0 0 0 0 0 0 0 0 0 0 0 0 0 0 0 0 0 0 0 0 0 0 0 0 0 0 0 0 0 0 0 0 0 0 0 0 0 0 0 0 0 0 0 0 0 0 0 0 0 0 0 0 0 0 0 0 0 0 0 0 0 0 0 0 0 0 0 0 0 0 0 0 0 
